2.174477577209472656e+01 1.533869552612304688e+01 1.642057609558105469e+01 2.096389770507812500e+01 1.472142410278320312e+01 1.698999786376953125e+01 2.005780410766601562e+01 1.528742885589599609e+01 1.687709045410156250e+01 2.069919204711914062e+01 1.341842555999755859e+01 1.636663055419921875e+01 2.069660568237304688e+01 1.231387710571289062e+01 1.735909461975097656e+01 1.972197532653808594e+01 1.180782413482666016e+01 1.738466644287109375e+01 2.155475807189941406e+01 1.167757511138916016e+01 1.709107398986816406e+01 2.133974647521972656e+01 1.443539524078369141e+01 1.842789077758789062e+01 2.244666099548339844e+01 1.457726097106933594e+01 1.857551002502441406e+01 2.086311149597167969e+01 1.294859504699707031e+01 1.869040679931640625e+01 2.166612625122070312e+01 1.243645477294921875e+01 1.924686241149902344e+01 1.967334556579589844e+01 1.289935874938964844e+01 1.953049850463867188e+01 2.079343414306640625e+01 1.544959831237792969e+01 1.930489540100097656e+01 1.941804504394531250e+01 1.636403083801269531e+01 1.916846656799316406e+01 1.820303916931152344e+01 1.600387954711914062e+01 1.825279617309570312e+01 1.900306129455566406e+01 1.677516746520996094e+01 2.057323837280273438e+01 2.012998771667480469e+01 1.773454475402832031e+01 1.845589065551757812e+01 2.114741516113281250e+01 1.758959197998046875e+01 1.747330093383789062e+01 2.172682952880859375e+01 1.668372726440429688e+01 1.777357101440429688e+01 2.180494499206542969e+01 1.849883270263671875e+01 1.754119682312011719e+01 2.048745346069335938e+01 1.744364166259765625e+01 1.608906364440917969e+01 2.100341033935546875e+01 1.676774215698242188e+01 1.544811344146728516e+01 1.949443435668945312e+01 1.697429847717285156e+01 1.629821014404296875e+01 2.044048881530761719e+01 1.840000915527343750e+01 1.560484313964843750e+01 1.534397792816162109e+01 1.428072357177734375e+01 2.225269508361816406e+01 1.496139430999755859e+01 1.505111694335937500e+01 2.183274650573730469e+01 1.536592864990234375e+01 1.361782550811767578e+01 2.156253814697265625e+01 1.879128646850585938e+01 6.250913619995117188e+00 1.943553924560546875e+01 2.088023757934570312e+01 9.913451194763183594e+00 2.454150009155273438e+01 2.183591079711914062e+01 9.950600624084472656e+00 2.458078575134277344e+01 2.588833618164062500e+01 1.482901668548583984e+01 1.416932392120361328e+01 2.609921836853027344e+01 1.563914585113525391e+01 1.370515537261962891e+01 2.570653533935546875e+01 1.419558811187744141e+01 1.347509956359863281e+01 2.063451766967773438e+01 1.284641170501708984e+01 2.189322853088378906e+01 2.019406127929687500e+01 1.358735370635986328e+01 2.230944252014160156e+01 2.038430213928222656e+01 1.290616512298583984e+01 2.097124481201171875e+01 1.957276725769042969e+01 1.225087165832519531e+01 2.494363594055175781e+01 2.010453605651855469e+01 1.151862049102783203e+01 2.463176727294921875e+01 1.879236221313476562e+01 1.223316192626953125e+01 2.438966178894042969e+01 1.466243839263916016e+01 1.665459442138671875e+01 2.100830078125000000e+01 1.491397380828857422e+01 1.666350173950195312e+01 2.008478546142578125e+01 1.484425544738769531e+01 1.754303932189941406e+01 2.131463813781738281e+01 2.740812301635742188e+01 1.712862968444824219e+01 1.666009712219238281e+01 1.939167213439941406e+01 8.657038688659667969e+00 2.227630615234375000e+01 1.983193588256835938e+01 8.988694190979003906e+00 2.305886840820312500e+01 1.919052124023437500e+01 9.440493583679199219e+00 2.176447868347167969e+01 2.226147460937500000e+01 2.076776885986328125e+01 2.247616767883300781e+01 2.309989356994628906e+01 2.086178970336914062e+01 2.202400779724121094e+01 2.184603309631347656e+01 2.001457023620605469e+01 2.205624961853027344e+01 1.738039970397949219e+01 1.644062995910644531e+01 1.484517669677734375e+01 1.808811569213867188e+01 1.664948654174804688e+01 1.423546504974365234e+01 1.758941078186035156e+01 1.693972969055175781e+01 1.563476371765136719e+01 2.524283790588378906e+01 2.271273994445800781e+01 1.603558731079101562e+01 2.586892700195312500e+01 2.207991600036621094e+01 1.568376827239990234e+01 2.451868820190429688e+01 2.217782592773437500e+01 1.636071014404296875e+01 1.574816894531250000e+01 1.254060077667236328e+01 2.007723045349121094e+01 1.593243026733398438e+01 1.210880756378173828e+01 1.924306297302246094e+01 1.657626724243164062e+01 1.295428085327148438e+01 2.032085418701171875e+01 1.799479293823242188e+01 1.759460830688476562e+01 2.296724700927734375e+01 1.759518814086914062e+01 1.683805656433105469e+01 2.339640617370605469e+01 1.846715164184570312e+01 1.722498321533203125e+01 2.222126579284667969e+01 2.369171142578125000e+01 1.025270366668701172e+01 2.378395080566406250e+01 2.352556228637695312e+01 1.020475006103515625e+01 2.284250259399414062e+01 2.367391204833984375e+01 1.118882560729980469e+01 2.398292922973632812e+01 2.185144615173339844e+01 1.200858402252197266e+01 1.201225280761718750e+01 2.248193931579589844e+01 1.184378051757812500e+01 1.271335887908935547e+01 2.118669700622558594e+01 1.256765651702880859e+01 1.241446971893310547e+01 2.095436668395996094e+01 2.081814002990722656e+01 1.923356628417968750e+01 2.092457771301269531e+01 1.997712135314941406e+01 1.968967056274414062e+01 2.029670906066894531e+01 2.073927879333496094e+01 1.854255104064941406e+01 2.692885398864746094e+01 1.591071033477783203e+01 1.982192230224609375e+01 2.597952079772949219e+01 1.579693508148193359e+01 1.977661514282226562e+01 2.716460609436035156e+01 1.560926342010498047e+01 2.069929504394531250e+01 1.533981609344482422e+01 1.916923713684082031e+01 2.173418045043945312e+01 1.487696838378906250e+01 1.994172668457031250e+01 2.140973663330078125e+01 1.605963134765625000e+01 1.952313232421875000e+01 2.225653648376464844e+01 2.463574981689453125e+01 1.929125785827636719e+01 1.868546104431152344e+01 2.443325233459472656e+01 1.974556159973144531e+01 1.950328445434570312e+01 2.439602088928222656e+01 1.837968063354492188e+01 1.885215759277343750e+01 1.744557189941406250e+01 2.019030952453613281e+01 2.326493644714355469e+01 1.801185798645019531e+01 2.079428482055664062e+01 2.278455734252929688e+01 1.780913543701171875e+01 1.932402992248535156e+01 2.308160018920898438e+01 2.464525032043457031e+01 1.308615207672119141e+01 1.958532333374023438e+01 2.435638618469238281e+01 1.337111854553222656e+01 1.871838569641113281e+01 2.475767898559570312e+01 1.213931751251220703e+01 1.950108337402343750e+01 1.557871913909912109e+01 1.196146488189697266e+01 1.357007503509521484e+01 1.589094257354736328e+01 1.118710041046142578e+01 1.310198593139648438e+01 1.637660980224609375e+01 1.241885948181152344e+01 1.383539009094238281e+01 1.462570285797119141e+01 1.869689178466796875e+01 1.764273071289062500e+01 1.552862453460693359e+01 1.850775527954101562e+01 1.738740539550781250e+01 1.423098659515380859e+01 1.783612632751464844e+01 1.778241729736328125e+01 1.955434608459472656e+01 1.046232128143310547e+01 2.022092056274414062e+01 1.963164329528808594e+01 1.138410377502441406e+01 1.997480201721191406e+01 1.998745727539062500e+01 9.987828254699707031e+00 1.951133918762207031e+01 1.893471145629882812e+01 1.471326160430908203e+01 1.145714092254638672e+01 1.802369308471679688e+01 1.449162101745605469e+01 1.164988422393798828e+01 1.914034080505371094e+01 1.421472167968750000e+01 1.066631412506103516e+01 2.525752449035644531e+01 1.858342361450195312e+01 1.497896575927734375e+01 2.594929504394531250e+01 1.915533065795898438e+01 1.531154632568359375e+01 2.566799545288085938e+01 1.810490226745605469e+01 1.425871372222900391e+01 1.797899627685546875e+01 2.165006256103515625e+01 2.040118217468261719e+01 1.771041297912597656e+01 2.073628997802734375e+01 2.030570030212402344e+01 1.890137100219726562e+01 2.160355758666992188e+01 2.065275764465332031e+01 2.222554588317871094e+01 1.724917984008789062e+01 1.280268573760986328e+01 2.231899642944335938e+01 1.690760803222656250e+01 1.191340065002441406e+01 2.273429870605468750e+01 1.664674758911132812e+01 1.334534358978271484e+01 2.342743110656738281e+01 9.182366371154785156e+00 1.791537475585937500e+01 2.357248687744140625e+01 8.408891677856445312e+00 1.737046432495117188e+01 2.403682518005371094e+01 9.078229904174804688e+00 1.864614486694335938e+01 2.310493278503417969e+01 1.675630187988281250e+01 2.220713806152343750e+01 2.378186225891113281e+01 1.696846580505371094e+01 2.284977722167968750e+01 2.313408088684082031e+01 1.580229663848876953e+01 2.213464736938476562e+01 1.913463592529296875e+01 1.106596279144287109e+01 1.231796646118164062e+01 1.999443817138671875e+01 1.125518608093261719e+01 1.194224166870117188e+01 1.929866218566894531e+01 1.036775875091552734e+01 1.295187377929687500e+01 2.355040740966796875e+01 1.047595882415771484e+01 1.386547088623046875e+01 2.405876159667968750e+01 1.049775886535644531e+01 1.467623233795166016e+01 2.301790237426757812e+01 9.683856964111328125e+00 1.393788337707519531e+01 2.086714172363281250e+01 1.848478889465332031e+01 2.141112899780273438e+01 2.155638885498046875e+01 1.784367561340332031e+01 2.158474159240722656e+01 2.013767433166503906e+01 1.796623420715332031e+01 2.107170104980468750e+01 2.265001296997070312e+01 9.868474960327148438e+00 2.119175338745117188e+01 2.186619377136230469e+01 1.035431671142578125e+01 2.093520355224609375e+01 2.239555931091308594e+01 8.948468208312988281e+00 2.112052917480468750e+01 1.243116092681884766e+01 1.691708374023437500e+01 1.791200447082519531e+01 1.414266872406005859e+01 1.132673645019531250e+01 2.087925910949707031e+01 1.908009910583496094e+01 1.936128997802734375e+01 1.108168506622314453e+01 1.915755462646484375e+01 1.874530220031738281e+01 1.181023979187011719e+01 1.826052284240722656e+01 1.911994934082031250e+01 1.065008544921875000e+01 2.683011245727539062e+01 1.348754596710205078e+01 1.655810928344726562e+01 2.594855117797851562e+01 1.343447685241699219e+01 1.692725372314453125e+01 2.672166633605957031e+01 1.398931026458740234e+01 1.575020885467529297e+01 2.254684257507324219e+01 1.612961959838867188e+01 1.033998584747314453e+01 2.246108818054199219e+01 1.517658329010009766e+01 1.036447048187255859e+01 2.349029350280761719e+01 1.628406143188476562e+01 1.029223346710205078e+01 2.284592819213867188e+01 1.964700698852539062e+01 1.371595287322998047e+01 2.245800590515136719e+01 1.888176727294921875e+01 1.329150295257568359e+01 2.361496353149414062e+01 1.930421066284179688e+01 1.417126274108886719e+01 1.581567478179931641e+01 1.543321037292480469e+01 1.850957489013671875e+01 1.582876110076904297e+01 1.447993183135986328e+01 1.859513282775878906e+01 1.673690032958984375e+01 1.567867374420166016e+01 1.842399597167968750e+01 1.779139709472656250e+01 8.718889236450195312e+00 1.881751632690429688e+01 1.816804885864257812e+01 9.395012855529785156e+00 1.938074111938476562e+01 1.828815460205078125e+01 7.928102493286132812e+00 1.902756500244140625e+01 1.952305221557617188e+01 1.688295555114746094e+01 1.301554393768310547e+01 2.045092391967773438e+01 1.676507377624511719e+01 1.321898841857910156e+01 1.938609313964843750e+01 1.637247085571289062e+01 1.221749687194824219e+01 1.791042518615722656e+01 1.151819515228271484e+01 2.281742858886718750e+01 1.878146171569824219e+01 1.136295700073242188e+01 2.245214462280273438e+01 1.757542800903320312e+01 1.226896572113037109e+01 2.232717132568359375e+01 2.015363311767578125e+01 6.351190090179443359e+00 1.641064071655273438e+01 1.949597549438476562e+01 6.959228515625000000e+00 1.607299232482910156e+01 2.703680992126464844e+01 2.045740509033203125e+01 1.590054988861083984e+01 2.698203086853027344e+01 2.063243103027343750e+01 1.684001541137695312e+01 2.369147872924804688e+01 1.629085159301757812e+01 1.506865692138671875e+01 2.434157180786132812e+01 1.561484527587890625e+01 1.526003742218017578e+01 2.417096900939941406e+01 1.711498832702636719e+01 1.515303993225097656e+01 1.569491195678710938e+01 9.342555999755859375e+00 1.732010650634765625e+01 1.639308357238769531e+01 9.243527412414550781e+00 1.796739578247070312e+01 1.550698280334472656e+01 1.028109359741210938e+01 1.731220817565917969e+01 2.488362121582031250e+01 1.072997474670410156e+01 1.614525222778320312e+01 2.577551651000976562e+01 1.042935466766357422e+01 1.631956291198730469e+01 2.433180618286132812e+01 1.017502307891845703e+01 1.669639587402343750e+01 2.062762260437011719e+01 1.385397338867187500e+01 1.361950588226318359e+01 1.985882377624511719e+01 1.440682888031005859e+01 1.347975444793701172e+01 2.065818977355957031e+01 1.372129917144775391e+01 1.456697368621826172e+01 2.069727897644042969e+01 8.225468635559082031e+00 1.842557334899902344e+01 2.059524917602539062e+01 7.431202411651611328e+00 1.790120315551757812e+01 2.142090988159179688e+01 8.695034980773925781e+00 1.801072883605957031e+01 2.171998405456542969e+01 7.369799613952636719e+00 2.074606132507324219e+01 2.092820167541503906e+01 7.493968486785888672e+00 2.126941108703613281e+01 2.141230964660644531e+01 7.381507873535156250e+00 1.983973312377929688e+01 1.786661338806152344e+01 1.378578567504882812e+01 2.107710075378417969e+01 1.783811569213867188e+01 1.474233055114746094e+01 2.105608940124511719e+01 1.860467720031738281e+01 1.355569934844970703e+01 2.051269531250000000e+01 1.521354675292968750e+01 1.526791858673095703e+01 1.577385807037353516e+01 1.582200527191162109e+01 1.584368610382080078e+01 1.531071472167968750e+01 1.543879032135009766e+01 1.537506771087646484e+01 1.669798851013183594e+01 1.818002319335937500e+01 7.979113578796386719e+00 1.601376724243164062e+01 1.729637908935546875e+01 8.132559776306152344e+00 1.567931079864501953e+01 1.825792884826660156e+01 8.568612098693847656e+00 1.676387023925781250e+01 1.998010444641113281e+01 2.232952690124511719e+01 2.254799842834472656e+01 2.083377647399902344e+01 2.192357826232910156e+01 2.269860076904296875e+01 2.771331024169921875e+01 1.208188056945800781e+01 1.844393539428710938e+01 2.364270973205566406e+01 2.191577529907226562e+01 1.253392696380615234e+01 2.362656211853027344e+01 2.107255172729492188e+01 1.298663425445556641e+01 2.345808029174804688e+01 2.170038795471191406e+01 1.161973190307617188e+01 2.478588867187500000e+01 2.083875274658203125e+01 2.106719970703125000e+01 2.463114738464355469e+01 2.177810859680175781e+01 2.096770477294921875e+01 1.959194564819335938e+01 2.154702186584472656e+01 1.685814666748046875e+01 2.026232528686523438e+01 2.166360282897949219e+01 1.618492126464843750e+01 1.934057044982910156e+01 2.243768501281738281e+01 1.710260772705078125e+01 2.331896018981933594e+01 1.385891532897949219e+01 2.175807571411132812e+01 2.368669700622558594e+01 1.376050376892089844e+01 2.087982749938964844e+01 2.242468452453613281e+01 1.352618980407714844e+01 2.168195533752441406e+01 1.987151336669921875e+01 1.530054187774658203e+01 2.283531761169433594e+01 1.977493667602539062e+01 1.577141952514648438e+01 2.200756263732910156e+01 1.897441291809082031e+01 1.516911411285400391e+01 2.314218902587890625e+01 2.403932571411132812e+01 1.324639320373535156e+01 1.684693145751953125e+01 2.422867584228515625e+01 1.238522911071777344e+01 1.647440528869628906e+01 2.326398468017578125e+01 1.354715633392333984e+01 1.637298965454101562e+01 1.985158920288085938e+01 1.619491767883300781e+01 2.606498527526855469e+01 2.470499801635742188e+01 7.022591590881347656e+00 1.653692817687988281e+01 2.515919685363769531e+01 7.215160846710205078e+00 1.571665191650390625e+01 2.538582611083984375e+01 7.081322193145751953e+00 1.720719337463378906e+01 1.742592620849609375e+01 1.891469955444335938e+01 1.992550468444824219e+01 1.766925621032714844e+01 1.799873161315917969e+01 2.005976486206054688e+01 1.672047233581542969e+01 1.906965637207031250e+01 2.055364036560058594e+01 1.870913314819335938e+01 2.195149421691894531e+01 1.167830085754394531e+01 1.884470558166503906e+01 2.107766342163085938e+01 1.131187343597412109e+01 1.845116233825683594e+01 2.179305076599121094e+01 1.258636474609375000e+01 1.429067611694335938e+01 1.499483394622802734e+01 1.414601325988769531e+01 2.707610130310058594e+01 2.025501060485839844e+01 1.874790763854980469e+01 2.614128494262695312e+01 2.005008125305175781e+01 1.876672172546386719e+01 1.647874450683593750e+01 1.067273998260498047e+01 2.344459152221679688e+01 2.655500221252441406e+01 1.247189235687255859e+01 2.104424285888671875e+01 2.299525833129882812e+01 1.281016445159912109e+01 2.443857383728027344e+01 2.204523849487304688e+01 1.287286949157714844e+01 2.453738403320312500e+01 2.317399406433105469e+01 1.320604419708251953e+01 2.358559989929199219e+01 1.552708435058593750e+01 1.204345703125000000e+01 1.742422294616699219e+01 1.475801086425781250e+01 1.253577995300292969e+01 1.713720893859863281e+01 1.626729011535644531e+01 1.261486816406250000e+01 1.721972846984863281e+01 2.135137939453125000e+01 2.350712203979492188e+01 1.321882057189941406e+01 2.014998245239257812e+01 2.312755203247070312e+01 1.238003826141357422e+01 2.028836250305175781e+01 1.991550445556640625e+01 9.861213684082031250e+00 2.123591232299804688e+01 1.716675949096679688e+01 2.507947731018066406e+01 2.121138000488281250e+01 1.810132408142089844e+01 2.487399673461914062e+01 2.098759269714355469e+01 1.673518562316894531e+01 2.426197242736816406e+01 1.721199035644531250e+01 1.519778060913085938e+01 2.400970458984375000e+01 1.683251762390136719e+01 1.532054901123046875e+01 2.487985420227050781e+01 1.648714828491210938e+01 1.487207412719726562e+01 2.347608184814453125e+01 1.302916717529296875e+01 1.342919540405273438e+01 1.722075080871582031e+01 1.344892597198486328e+01 1.426855850219726562e+01 1.703232383728027344e+01 1.742911911010742188e+01 1.046674251556396484e+01 1.200846004486083984e+01 2.511376571655273438e+01 1.015354728698730469e+01 1.998534393310546875e+01 2.582061767578125000e+01 1.001517200469970703e+01 2.061577606201171875e+01 2.431272125244140625e+01 9.997831344604492188e+00 2.048565673828125000e+01 2.121280097961425781e+01 2.375956726074218750e+01 1.944169616699218750e+01 2.221503067016601562e+01 2.357368087768554688e+01 2.056060981750488281e+01 2.386001968383789062e+01 1.662350845336914062e+01 1.948714828491210938e+01 2.351455688476562500e+01 1.651402854919433594e+01 2.037309646606445312e+01 2.316973686218261719e+01 1.628436851501464844e+01 1.891730117797851562e+01 1.958028793334960938e+01 8.849635124206542969e+00 1.369660949707031250e+01 1.942888259887695312e+01 8.132203102111816406e+00 1.308130455017089844e+01 1.916137886047363281e+01 8.561915397644042969e+00 1.450775909423828125e+01 2.338983345031738281e+01 2.136363410949707031e+01 1.730265808105468750e+01 2.381469345092773438e+01 2.051033782958984375e+01 1.738991928100585938e+01 2.278427124023437500e+01 2.140647888183593750e+01 1.804271697998046875e+01 1.737534332275390625e+01 1.823500823974609375e+01 1.710447311401367188e+01 1.780443954467773438e+01 1.742461585998535156e+01 1.737901115417480469e+01 1.772532081604003906e+01 1.890295028686523438e+01 1.769404983520507812e+01 1.595964813232421875e+01 8.517120361328125000e+00 1.459043312072753906e+01 1.522898483276367188e+01 9.042789459228515625e+00 1.491606426239013672e+01 1.634391593933105469e+01 9.047513961791992188e+00 1.389239788055419922e+01 2.149328041076660156e+01 2.413981437683105469e+01 1.611114120483398438e+01 1.658538818359375000e+01 1.945538330078125000e+01 1.428043079376220703e+01 1.690401458740234375e+01 1.859040260314941406e+01 1.453834152221679688e+01 1.606505775451660156e+01 1.929408073425292969e+01 1.349336719512939453e+01 1.774857711791992188e+01 1.335440635681152344e+01 1.758019638061523438e+01 1.832765388488769531e+01 1.291217994689941406e+01 1.820095252990722656e+01 1.784924316406250000e+01 1.428509521484375000e+01 1.777998733520507812e+01 2.223818016052246094e+01 8.330632209777832031e+00 1.314676094055175781e+01 2.139354705810546875e+01 8.650611877441406250e+00 1.346368694305419922e+01 2.217802810668945312e+01 7.378483295440673828e+00 1.322438812255859375e+01 2.164007949829101562e+01 2.161545944213867188e+01 1.526557922363281250e+01 2.187471199035644531e+01 2.087304496765136719e+01 1.470880222320556641e+01 2.232530403137207031e+01 2.163991737365722656e+01 1.593348884582519531e+01 1.789276123046875000e+01 2.174251937866210938e+01 1.429933452606201172e+01 1.749478149414062500e+01 2.087512207031250000e+01 1.437327671051025391e+01 1.847519683837890625e+01 2.180413436889648438e+01 1.505643749237060547e+01 1.771677589416503906e+01 1.338329219818115234e+01 1.481383895874023438e+01 1.756774902343750000e+01 1.432861995697021484e+01 1.483327770233154297e+01 1.810388755798339844e+01 1.318426895141601562e+01 1.566634559631347656e+01 2.194448280334472656e+01 2.037251472473144531e+01 2.423954391479492188e+01 2.640025520324707031e+01 1.709264373779296875e+01 1.292558193206787109e+01
