1.348361968994140625e-01 -4.197975397109985352e-01 -7.125373184680938721e-02 -3.594156503677368164e-01 -3.076031684875488281e+00 -2.801815271377563477e+00 -4.634212255477905273e-01 -2.372221201658248901e-01 -6.882876157760620117e-01 6.160165071487426758e-01 5.190685987472534180e-01 3.362558603286743164e+00 -1.712531894445419312e-01 1.377440452575683594e+00 -3.133885860443115234e+00 -1.470969915390014648e-01 -2.815162539482116699e-01 -3.472557663917541504e-01 8.245197683572769165e-02 -8.421772718429565430e-02 -1.694246679544448853e-01 1.633208990097045898e-01 1.273082017898559570e+00 2.844642877578735352e+00 -2.990908026695251465e-01 -1.321570277214050293e-01 1.402585804462432861e-01 -3.914774179458618164e+00 3.108143806457519531e-03 4.382766246795654297e+00 -9.221398830413818359e-02 9.056511521339416504e-02 -1.420775055885314941e-02 5.082048892974853516e+00 7.544627785682678223e-01 -4.396170616149902344e+00 1.420250892639160156e+00 -2.638403654098510742e+00 -9.178584814071655273e-01 -2.599291801452636719e+00 2.276489734649658203e-01 1.013514518737792969e+00 2.083136796951293945e+00 3.389875292778015137e-01 1.470406293869018555e+00 -2.160748839378356934e-02 -7.416533231735229492e-01 -1.320847272872924805e+00 1.519829750061035156e+00 2.839552462100982666e-01 -1.158193588256835938e+00 -5.588021278381347656e-01 1.324769616127014160e+00 1.362610816955566406e+00 6.686166524887084961e-01 5.653105974197387695e-01 -3.953836858272552490e-01 3.831782937049865723e-02 2.092587947845458984e-02 3.789380937814712524e-02 -2.144014537334442139e-01 4.219688773155212402e-01 -3.840192556381225586e-01 3.279803395271301270e-01 -2.478405833244323730e-01 -5.811812877655029297e-01 -4.010501503944396973e-01 1.006662845611572266e-03 -5.101333856582641602e-01 -1.235067844390869141e-03 5.348688364028930664e-01 -3.040966093540191650e-01 2.299914509057998657e-02 -1.095274090766906738e-02 -3.095841407775878906e-02 -1.273863017559051514e-02 6.164908409118652344e-03 1.314055919647216797e-02 -1.479666680097579956e-02 1.995444297790527344e-03 1.435059309005737305e-02 2.692431211471557617e-03 4.795432090759277344e-03 -4.748463630676269531e-03 7.377266883850097656e-04 -1.704361289739608765e-02 1.993596553802490234e-02 -1.677870750427246094e-03 8.432952687144279480e-03 -9.913355112075805664e-03 -3.307405859231948853e-02 6.147384643554687500e-03 3.169894218444824219e-02 9.839266538619995117e-03 -2.664208412170410156e-03 -1.074242591857910156e-02 9.709984064102172852e-03 -4.631400108337402344e-03 -1.426076889038085938e-02 -1.427340507507324219e-02 -2.776002883911132812e-02 -4.535484313964843750e-02 9.884327650070190430e-03 1.826626062393188477e-02 5.101830884814262390e-02 2.882523536682128906e-01 -1.233643293380737305e-02 9.695205688476562500e-01 -3.765285015106201172e-03 -3.042221069335937500e-03 -1.560187339782714844e-02 2.040073275566101074e-03 -3.166794776916503906e-04 1.259988546371459961e-02 -2.005130052566528320e-03 2.383589744567871094e-03 1.499718427658081055e-02 1.741087436676025391e-02 -1.516687870025634766e-02 -1.747804880142211914e-02 -1.224800944328308105e-02 5.587249994277954102e-03 3.832399845123291016e-03 -5.093932151794433594e-03 6.896972656250000000e-03 7.799826562404632568e-03 1.082237437367439270e-02 2.441413700580596924e-03 1.215100288391113281e-03 2.026796340942382812e-03 2.639436721801757812e-02 -2.640888839960098267e-02 1.070886850357055664e-03 -5.050420761108398438e-03 1.217836141586303711e-02 -2.766147255897521973e-03 -1.197135448455810547e-02 8.845269680023193359e-03 5.029469728469848633e-03 2.634048461914062500e-03 -5.468845367431640625e-03 1.131713390350341797e-03 3.342643380165100098e-03 7.292151451110839844e-03 -8.432954549789428711e-03 -6.534874439239501953e-03 -1.258015632629394531e-03 -2.156805992126464844e-02 -1.835167407989501953e-03 -6.185798346996307373e-02 -4.080408811569213867e-02 -1.214712858200073242e-02 -1.342362165451049805e-02 -8.149760961532592773e-02 -1.414585113525390625e-02 -1.813235878944396973e-02 2.152979373931884766e-03 -1.635074615478515625e-03 -4.503309726715087891e-03 5.675107240676879883e-04 1.746594905853271484e-03 1.282735727727413177e-03 -7.973313331604003906e-04 -5.239248275756835938e-05 2.781808376312255859e-03 5.004870891571044922e-02 6.068572402000427246e-03 -1.365530490875244141e-02 -2.551606297492980957e-02 -5.517810583114624023e-03 2.377271652221679688e-03 -4.510617256164550781e-02 -7.011383771896362305e-03 1.562001183629035950e-02 -3.606187552213668823e-02 1.321315765380859375e-03 4.534560441970825195e-02 5.876004695892333984e-03 1.290494203567504883e-02 3.129079937934875488e-03 -9.529516100883483887e-02 9.981220960617065430e-02 3.512911200523376465e-01 -3.188848495483398438e-04 -5.848169326782226562e-03 -6.152033805847167969e-03 7.309615612030029297e-03 -5.488157272338867188e-03 1.500010490417480469e-02 8.936524391174316406e-04 2.451300621032714844e-03 4.846677184104919434e-03 -1.198112964630126953e-03 5.315661430358886719e-03 3.361606597900390625e-02 1.306831836700439453e-03 -5.594983696937561035e-03 -1.750153303146362305e-02 -3.454893827438354492e-03 -9.342610836029052734e-03 -1.493728160858154297e-02 3.219598531723022461e-02 2.810782194137573242e-02 -2.721261978149414062e-02 -2.620562911033630371e-02 5.260467529296875000e-03 2.104812487959861755e-02 -1.741588115692138672e-02 1.223789155483245850e-02 2.938985824584960938e-02 -5.233463644981384277e-02 -1.460152864456176758e-02 -1.843023300170898438e-02 1.625764369964599609e-02 4.508994519710540771e-03 1.017831265926361084e-02 2.493341267108917236e-02 3.119111061096191406e-03 1.347416639328002930e-02 -8.580297231674194336e-03 7.475972175598144531e-03 -5.513608455657958984e-03 2.001374959945678711e-04 -1.547634601593017578e-03 3.256708383560180664e-03 5.101025104522705078e-03 -3.691971302032470703e-03 1.798927783966064453e-03 -1.804324984550476074e-02 -3.285419940948486328e-02 -2.334272861480712891e-02 9.652331471443176270e-03 1.665616035461425781e-02 1.775383949279785156e-02 1.058536767959594727e-02 7.292032241821289062e-03 1.718229055404663086e-02 -6.395816802978515625e-03 1.076173782348632812e-02 3.208935260772705078e-03 1.742184162139892578e-03 -4.535213112831115723e-03 -5.359053611755371094e-04 5.161345005035400391e-03 -7.379412651062011719e-03 -4.216149449348449707e-03 1.207590103149414062e-04 5.567073822021484375e-03 -2.559077739715576172e-02 6.049470603466033936e-02 -3.062123060226440430e-02 2.331984043121337891e-02 2.548192068934440613e-02 -1.722937822341918945e-02 1.163575053215026855e-02 -8.404254913330078125e-04 -7.774829864501953125e-03 -3.298506140708923340e-03 2.367198467254638672e-03 7.237613201141357422e-03 5.541443824768066406e-03 -1.247787475585937500e-02 -8.576810359954833984e-03 -1.692366600036621094e-02 3.263652324676513672e-03 -1.990795135498046875e-04 -4.652768373489379883e-03 -7.773876190185546875e-03 1.174747943878173828e-03 -5.459338426589965820e-04 -2.191215753555297852e-03 1.555085182189941406e-03 1.430734992027282715e-03 1.536709070205688477e-02 4.871344566345214844e-02 -2.378714084625244141e-02 -1.531966626644134521e-01 -9.662352800369262695e-01 3.916655778884887695e-01 -7.967740297317504883e-03 -7.951760292053222656e-02 1.630091667175292969e-02 9.575009346008300781e-03 1.109331846237182617e-02 2.858400344848632812e-02 -5.220890045166015625e-03 -3.588557243347167969e-03 -1.163141429424285889e-02 7.073879241943359375e-04 3.895163536071777344e-04 1.656603068113327026e-02 -3.646326065063476562e-02 -1.493293046951293945e-02 1.310199499130249023e-02 9.118795394897460938e-03 3.980219364166259766e-03 6.764978170394897461e-04 1.071935892105102539e-02 3.934741020202636719e-03 -4.848420619964599609e-03 -5.147218704223632812e-03 1.102268695831298828e-02 -4.040509462356567383e-03 5.275875329971313477e-03 -2.287864685058593750e-03 3.584355115890502930e-03 5.382895469665527344e-04 -6.746709346771240234e-03 1.361951231956481934e-03 8.938908576965332031e-04 1.302123069763183594e-03 2.850812673568725586e-02 1.133233308792114258e-03 -1.910150051116943359e-03 -1.339542865753173828e-02 1.304078102111816406e-02 2.643942832946777344e-03 -4.080280661582946777e-02 -2.473473548889160156e-03 3.057360649108886719e-03 -2.161562442779541016e-03 2.827644348144531250e-03 -6.894767284393310547e-03 -8.677840232849121094e-04 2.552986145019531250e-03 -2.076234668493270874e-03 2.296447753906250000e-03 3.465789556503295898e-02 -2.863645553588867188e-03 1.119923591613769531e-02 -1.167595386505126953e-03 9.237656369805335999e-03 1.305043697357177734e-02 -1.680153608322143555e-02 8.199572563171386719e-03 -5.151957273483276367e-03 4.499554634094238281e-03 -7.235407829284667969e-03 4.230737686157226562e-03 -9.283423423767089844e-04 3.270670771598815918e-03 -3.741428256034851074e-03 -3.675103187561035156e-03 1.575529575347900391e-03 -3.270685672760009766e-03 -4.085019230842590332e-03 1.005780696868896484e-02 1.767933368682861328e-02 1.869320869445800781e-03 -2.785008400678634644e-03 -4.903078079223632812e-03 1.598507165908813477e-03 -7.872998714447021484e-03 -8.535481989383697510e-03 7.292568683624267578e-02 7.413554191589355469e-02 5.091241002082824707e-02 2.061605453491210938e-02 1.116478443145751953e-02 3.592121601104736328e-02 3.765688240528106689e-01 5.223631262779235840e-01 4.511057138442993164e-01 -2.441918849945068359e-02 2.746987342834472656e-02 -1.750952005386352539e-02 1.903921365737915039e-02 -3.232222050428390503e-02 2.558120340108871460e-02 3.381967544555664062e-03 -5.791664123535156250e-03 3.593951463699340820e-03 -2.316904067993164062e-02 2.017080783843994141e-03 -2.797955414280295372e-03 -8.700028061866760254e-03 1.912117004394531250e-04 3.270298242568969727e-03 1.623749732971191406e-03 1.540386676788330078e-02 -1.775428652763366699e-02 -6.810486316680908203e-03 1.774966716766357422e-03 -6.869316101074218750e-03 2.075910568237304688e-03 -5.178987979888916016e-03 9.907007217407226562e-03 -6.318831443786621094e-02 1.242214441299438477e-02 1.295107603073120117e-02 3.200584650039672852e-02 -1.146906614303588867e-02 -1.292258501052856445e-03 2.806538343429565430e-02 -3.284931182861328125e-03 -1.090478897094726562e-02 2.195715904235839844e-03 -2.218484878540039062e-03 -3.730833530426025391e-03 -2.023935317993164062e-03 2.185165882110595703e-03 6.304770708084106445e-03 -4.912376403808593750e-03 -1.686662435531616211e-04 1.009663194417953491e-02 -6.855115294456481934e-03 -2.576398849487304688e-02 3.086513280868530273e-02 5.287833511829376221e-03 1.298224925994873047e-02 -2.413308620452880859e-02 1.536160707473754883e-02 1.640820503234863281e-02 -1.815119385719299316e-02 -9.679913520812988281e-02 -5.468128994107246399e-02 3.865813836455345154e-02 -3.814262151718139648e-02 1.121303439140319824e-02 -1.141762733459472656e-02 -1.099226236343383789e+00 -2.445290386676788330e-01 1.426298171281814575e-02 1.092600822448730469e-02 1.971548795700073242e-02 5.604863166809082031e-03 -1.122504472732543945e-02 -1.913394033908843994e-02 3.618001937866210938e-05 -3.355383872985839844e-03 -9.580612182617187500e-03 3.484487533569335938e-04 4.452943801879882812e-03 2.408623695373535156e-03 2.748775482177734375e-02 -6.119012832641601562e-03 -1.242343522608280182e-02 -6.741607189178466797e-02 -5.251288414001464844e-03 -2.866268157958984375e-03 -2.277010679244995117e-02 1.855739951133728027e-02 1.336079835891723633e-02 -3.760194778442382812e-02 -8.980751037597656250e-03 -1.293858885765075684e-02 2.623087167739868164e-02 -1.544857025146484375e-02 -6.326317787170410156e-03 2.491706609725952148e-02 1.029729843139648438e-03 -2.730488777160644531e-04 8.400678634643554688e-04 -7.307529449462890625e-05 2.008259296417236328e-03 1.035362482070922852e-03 -2.963900566101074219e-03 -3.575086593627929688e-04 -2.487063407897949219e-03 -1.789927482604980469e-03 -1.354116946458816528e-03 2.915978431701660156e-03 2.375602722167968750e-03 1.510381698608398438e-03 1.782380789518356323e-02 3.223615884780883789e-02 1.278564333915710449e-03 -2.258120477199554443e-02 3.695124387741088867e-02 9.706497192382812500e-03 -2.447822690010070801e-02 1.374912261962890625e-02 1.005530357360839844e-02 7.860541343688964844e-03 -9.068846702575683594e-03 -1.038728468120098114e-02 -4.691779613494873047e-03 -1.156277209520339966e-02 -8.988142013549804688e-03 -6.627261638641357422e-03 -5.727112293243408203e-03 5.537152290344238281e-03 -1.666784286499023438e-03 9.085059165954589844e-03 -6.177008152008056641e-03 -2.612143754959106445e-03 6.000742316246032715e-03 -6.606519222259521484e-03 5.742311477661132812e-04 1.086962223052978516e-02 3.608065843582153320e-02 -5.223941802978515625e-02 -4.037141799926757812e-03 -1.359146833419799805e-02 -1.452434062957763672e-02 -3.740808367729187012e-02 -5.290630459785461426e-02 -2.257320284843444824e-01 -1.714795827865600586e-03 1.273983716964721680e-02 4.278004169464111328e-03 -1.706779003143310547e-04 -9.543657302856445312e-03 -2.490043640136718750e-03 2.342462539672851562e-03 -1.087388396263122559e-02 -1.837104558944702148e-03 -2.889633178710937500e-03 9.913802146911621094e-03 -7.882118225097656250e-03 5.705356597900390625e-04 -5.070716142654418945e-03 5.708739161491394043e-03 1.510739326477050781e-03 -6.735563278198242188e-03 1.659035682678222656e-03 5.445754528045654297e-02 -2.549397200345993042e-02 -8.171558380126953125e-02 -1.543053984642028809e-01 -1.047855615615844727e-01 1.910268068313598633e-01 -6.775217056274414062e-01 3.050399422645568848e-01 6.901308298110961914e-01 -1.103591918945312500e-02 -1.293432712554931641e-02 -1.486229896545410156e-02 2.089619636535644531e-03 2.513885498046875000e-03 9.471110999584197998e-03 5.867183208465576172e-03 8.921533823013305664e-03 3.112196922302246094e-03 1.145482063293457031e-03 -4.213154315948486328e-03 5.481839179992675781e-04 4.822015762329101562e-04 4.724144935607910156e-03 1.943707466125488281e-03 -5.040735006332397461e-03 -6.469905376434326172e-03 -4.410266876220703125e-03 -3.080368041992187500e-03 1.050803065299987793e-02 -2.939522266387939453e-03 1.110911369323730469e-03 6.806850433349609375e-05 4.203736782073974609e-03 1.196888089179992676e-02 -2.742707729339599609e-04 1.491844654083251953e-03 -1.176595687866210938e-03 -4.084229469299316406e-03 2.083301544189453125e-03 -1.470059156417846680e-03 -1.996755599975585938e-04 2.283774316310882568e-03 -1.363098621368408203e-03 -2.021118998527526855e-03 3.356635570526123047e-03 3.192961215972900391e-03 -1.257658004760742188e-03 -9.664386510848999023e-03 -3.512524068355560303e-03 -3.046870231628417969e-03 3.422744572162628174e-03 1.562368869781494141e-02 -2.015942335128784180e-02 -1.595675945281982422e-02 -8.068919181823730469e-03 1.598487794399261475e-02 3.051221370697021484e-03 -3.376565873622894287e-03 9.585618972778320312e-04 5.830794572830200195e-03 1.355661451816558838e-02 -2.836644649505615234e-02 -1.154017448425292969e-02 9.066671133041381836e-03 7.067024707794189453e-03 3.216516971588134766e-02 1.383471488952636719e-02 2.376517653465270996e-02 2.914178371429443359e-02 -1.773953437805175781e-03 -6.850287318229675293e-02 3.447759151458740234e-02 1.090028285980224609e-01 -8.812555670738220215e-02 3.391015827655792236e-01 3.025233745574951172e-03 1.421430148184299469e-02 2.365408837795257568e-02 -2.714692056179046631e-02 2.673947811126708984e-02 -7.370591163635253906e-03 3.816807270050048828e-02 -2.557635307312011719e-02 -1.721566915512084961e-02 1.602157354354858398e-01 -4.353898763656616211e-02 -7.225078344345092773e-02 1.966625452041625977e-03 3.822490572929382324e-03 3.819227218627929688e-03 -2.467751502990722656e-03 -1.439958810806274414e-03 1.722514629364013672e-03 -3.222048282623291016e-03 4.790529608726501465e-03 1.835167407989501953e-03 5.493164062500000000e-04 1.154607161879539490e-03 4.060566425323486328e-04 -3.282329440116882324e-02 1.515626907348632812e-03 -2.296996116638183594e-02 -4.800094366073608398e-01 4.694232046604156494e-01 1.390945613384246826e-01 -1.798677444458007812e-02 2.504682540893554688e-02 1.862049102783203125e-02 -5.521476268768310547e-04 5.352258682250976562e-03 -1.018130779266357422e-02 -2.058222889900207520e-04 -1.426935195922851562e-03 4.106849431991577148e-03 -1.509815454483032227e-03 -2.794951200485229492e-03 5.023717880249023438e-03 -1.368889212608337402e-02 1.466065645217895508e-03 -8.652925491333007812e-03 1.156318187713623047e-02 6.380736827850341797e-03 -5.808413028717041016e-03 2.987384796142578125e-03 1.520574092864990234e-03 3.186166286468505859e-03 7.996559143066406250e-04 2.124547958374023438e-03 1.164019107818603516e-03 7.645100355148315430e-03 -1.597762107849121094e-03 8.862778544425964355e-03 -1.197600364685058594e-02 2.954006195068359375e-03 -3.441560268402099609e-02 5.788683891296386719e-03 -1.977846026420593262e-03 2.077059447765350342e-02 1.260752975940704346e-02 -1.854836940765380859e-03 2.858585119247436523e-02 3.059321641921997070e-02 -4.580020904541015625e-04 6.098985671997070312e-03 -1.075184345245361328e-02 2.808451652526855469e-03 -2.074539661407470703e-03 -2.344626188278198242e-02 3.584146499633789062e-03 -7.882624864578247070e-03 -7.455497980117797852e-04 -2.273738384246826172e-03 2.757713198661804199e-03 2.671778202056884766e-04 -3.313601016998291016e-03 4.105359315872192383e-03 6.574392318725585938e-05 -1.646935939788818359e-03 6.214380264282226562e-03 3.656594082713127136e-03 -2.321124076843261719e-03 2.313137054443359375e-03 -1.214094460010528564e-03 1.523017883300781250e-03 3.619223833084106445e-03 -4.863590002059936523e-03 4.144188947975635529e-03 -8.389890193939208984e-03 -2.157688140869140625e-03 -1.295602321624755859e-02 -9.002380073070526123e-03 8.030533790588378906e-04 6.888613104820251465e-03 -1.145958900451660156e-03 -3.777682781219482422e-03 6.711125373840332031e-03 1.384627819061279297e-02 1.775398850440979004e-02 -1.212835311889648438e-03 2.792716026306152344e-03 -1.267621759325265884e-02 1.940369606018066406e-03 -1.244609709829092026e-03 5.984306335449218750e-04 4.028886556625366211e-03 1.932188868522644043e-03 -2.620995044708251953e-03 -6.036758422851562500e-04 -6.864309310913085938e-03 3.054596483707427979e-03 -8.954964578151702881e-04 5.865156650543212891e-03 5.051493644714355469e-03 -2.919867634773254395e-03 3.933668136596679688e-03 -4.318356513977050781e-04 9.472370147705078125e-04 4.325389862060546875e-03 -2.713978290557861328e-03 -5.270928144454956055e-03 2.053231000900268555e-03 9.673810005187988281e-02 1.010829210281372070e-02 -2.886670827865600586e-02 -2.115663886070251465e-02 2.623312175273895264e-03 2.908700704574584961e-02 1.627847254276275635e-01 1.217842027544975281e-01 1.421674489974975586e-01 -1.964330673217773438e-03 -1.213645935058593750e-02 -6.023645401000976562e-03 1.721978187561035156e-04 -3.797709941864013672e-03 -5.892068147659301758e-03 -5.645155906677246094e-04 2.101242542266845703e-03 -1.776218414306640625e-04 -8.101331070065498352e-03 -2.660191059112548828e-02 -1.359057426452636719e-02 1.381358504295349121e-02 2.172493934631347656e-02 6.967782974243164062e-03 -1.304626464843750000e-03 1.205563545227050781e-02 1.192349195480346680e-02 -5.141878128051757812e-02 9.144961833953857422e-02 -3.417873382568359375e-02 -4.246661961078643799e-01 4.694391191005706787e-01 -4.517042040824890137e-01 -4.629242420196533203e-02 7.426813989877700806e-02 -1.772385835647583008e-02 3.207147121429443359e-03 -1.372337341308593750e-03 4.474222660064697266e-04 6.780028343200683594e-04 5.219042301177978516e-03 1.976549625396728516e-03 -1.745628193020820618e-03 1.408457756042480469e-03 -6.553530693054199219e-05 -1.119494438171386719e-03 -3.382563591003417969e-05 2.582579851150512695e-03 1.875996589660644531e-02 -7.843613624572753906e-03 1.040810346603393555e-02 -1.341043412685394287e-02 5.700975656509399414e-03 -8.987914770841598511e-04 -3.282368183135986328e-03 -2.423375844955444336e-03 -5.106866359710693359e-03 1.186070442199707031e-01 -3.598165512084960938e-02 7.138371467590332031e-02 -5.063332319259643555e-01 -5.110579729080200195e-02 -1.859244108200073242e-01 -2.958366572856903076e-01 -2.902480959892272949e-01 -2.123489975929260254e-01 -3.638148307800292969e-03 2.683997154235839844e-04 4.968106746673583984e-03 1.078844070434570312e-03 2.262808382511138916e-03 -1.728504896163940430e-03 -2.716183662414550781e-04 -2.216100692749023438e-04 3.218650817871093750e-05 4.675149917602539062e-03 -3.481459617614746094e-02 1.192390918731689453e-02 -1.000404357910156250e-03 1.988381147384643555e-02 -1.363408565521240234e-02 2.673029899597167969e-03 2.164515852928161621e-02 -1.581072807312011719e-03 7.479429244995117188e-03 -6.657361984252929688e-03 7.327914237976074219e-03 -7.262527942657470703e-03 6.894350051879882812e-03 -5.686521530151367188e-03 -5.159795284271240234e-03 6.428152322769165039e-03 -2.054035663604736328e-03 -1.079887151718139648e-04 -1.640206575393676758e-02 1.322400569915771484e-02 -9.179227054119110107e-03 8.417010307312011719e-03 -1.420497894287109375e-03 -3.713421896100044250e-02 8.687317371368408203e-03 -5.502647161483764648e-02 5.288720130920410156e-04 3.039717674255371094e-03 6.509304046630859375e-03 3.477394580841064453e-03 5.030870437622070312e-03 -1.965999603271484375e-03
